Created on Tue Oct 26 14:09:48 2021 

         980 atoms
        1152 bonds
        2436 angles
        2456 dihedrals
        1320 impropers

          12 atom types
          15 bond types
          30 angle types
           7 dihedral types
           1 improper types
           0.000000  26.896000 xlo xhi
           0.000000  26.896000 ylo yhi
           0.000000  26.896000 zlo zhi
           0.000000   0.000000   0.000000 xy xz yz

Masses

    1    91.224000000 # Zr3+4
    2    15.999400000 # O_2
    3    15.999400000 # O_R
    4    12.010700000 # C_R
    5     1.007940000 # H_
    6    39.948000000 # Ar4+4
    7    15.999400000 # O_R
    8    14.006700000 # N_R
    9    14.006700000 # N_3
   10    12.010700000 # C_3
   11    12.010700000 # C_R
   12     1.007940000 # H_

Bond Coeffs

    1      308.999548        2.084967  # Zr3+4 O_2
    2      291.001389        2.127094  # Zr3+4 O_R
    3      646.680887        1.311940  # O_R C_R
    4      391.669513        1.458000  # C_R C_R
    5      462.655054        1.379256  # C_R C_R
    6      357.440381        1.081418  # C_R H_
    7       28.378756        1.357088  # Ar4+4 H_
    8      529.724731        1.450075  # N_R C_3
    9      561.491352        1.422196  # N_R C_R
   10      663.718927        1.345073  # N_R C_R
   11      528.634538        1.451071  # N_3 C_3
   12      527.945261        1.044419  # N_3 H_
   13      349.795899        1.514000  # C_3 C_3
   14      331.069389        1.109401  # C_3 H_
   15      369.943935        1.486000  # C_R C_3

Angle Coeffs

    1                      fourier      118.687092        0.343737        0.374972        0.281246 # O_2 Zr3+4 O_2
    2                      fourier      115.139800        0.343737        0.374972        0.281246 # O_2 Zr3+4 O_R
    3                      fourier      111.773978        0.343737        0.374972        0.281246 # O_R Zr3+4 O_R
    4              cosine/periodic      118.513834              -1               3 # Zr3+4 O_2 Zr3+4
    5              cosine/periodic      124.830884              -1               3 # Zr3+4 O_R C_R
    6              cosine/periodic      187.136328              -1               3 # O_R C_R O_R
    7              cosine/periodic      131.755710              -1               3 # O_R C_R C_R
    8              cosine/periodic      102.183280              -1               3 # C_R C_R C_R
    9              cosine/periodic      111.297508              -1               3 # C_R C_R C_R
   10              cosine/periodic       57.289016              -1               3 # C_R C_R H_
   11              cosine/periodic       35.718924               1               4 # H_ Ar4+4 H_
   12              cosine/periodic       98.578228              -1               3 # C_3 N_R C_R
   13              cosine/periodic      106.782348              -1               3 # C_3 N_R C_R
   14              cosine/periodic      110.133094              -1               3 # C_R N_R C_R
   15                      fourier      260.869388        0.317506        0.313225        0.272502 # C_3 N_3 C_3
   16                      fourier      144.695053        0.317506        0.313225        0.272502 # C_3 N_3 H_
   17                      fourier      303.594562        0.343737        0.374972        0.281246 # N_R C_3 C_3
   18                      fourier      170.007371        0.343737        0.374972        0.281246 # N_R C_3 H_
   19                      fourier      214.211821        0.343737        0.374972        0.281246 # C_3 C_3 C_3
   20                      fourier      117.318683        0.343737        0.374972        0.281246 # C_3 C_3 H_
   21                      fourier       75.498766        0.343737        0.374972        0.281246 # H_ C_3 H_
   22                      fourier      303.297032        0.343737        0.374972        0.281246 # N_3 C_3 C_3
   23                      fourier      169.780468        0.343737        0.374972        0.281246 # N_3 C_3 H_
   24              cosine/periodic      141.337441              -1               3 # N_R C_R C_R
   25              cosine/periodic      199.301576              -1               3 # O_R C_R N_R
   26              cosine/periodic      127.658657              -1               3 # O_R C_R C_3
   27              cosine/periodic      136.548728              -1               3 # N_R C_R C_3
   28                      fourier      220.229931        0.343737        0.374972        0.281246 # C_R C_3 C_3
   29                      fourier      121.777217        0.343737        0.374972        0.281246 # C_R C_3 H_
   30              cosine/periodic       13.135722               1               1 # Ar4+4 H_ C_R

Dihedral Coeffs

    1        6.737110              -1               2 # Zr3+4 O_R C_R O_R
    2        1.250000              -1               2 # O_R C_R C_R C_R
    3        3.368555              -1               2 # C_R C_R C_R H_
    4        0.166667               1               3 # C_R N_R C_3 C_3
    5        0.081375               1               3 # C_3 N_3 C_3 C_3
    6        0.117722               1               3 # N_R C_3 C_3 C_3
    7        0.500000               1               3 # C_R C_R H_ Ar4+4

Improper Coeffs

    1        2.000000        1.000000       -1.000000        0.000000               0 # Zr3+4 O_2 Zr3+4 Zr3+4

Pair Coeffs

    1        0.069000        2.783168 # Zr3+4 Zr3+4
    2        0.060000        3.118146 # O_2 O_2
    3        0.060000        3.118146 # O_R O_R
    4        0.105000        3.430851 # C_R C_R
    5        0.044000        2.571134 # H_ H_
    6        0.185000        3.445996 # Ar4+4 Ar4+4
    7        0.060000        3.118146 # O_R O_R
    8        0.069000        3.260689 # N_R N_R
    9        0.069000        3.260689 # N_3 N_3
   10        0.105000        3.430851 # C_3 C_3
   11        0.105000        3.430851 # C_R C_R
   12        0.044000        2.571134 # H_ H_

Atoms

       1      444        1     0.00000    2.47551    0.00000    0.00000
       2      444        1     0.00000   24.42049    0.00000    0.00000
       3      444        1     0.00000    0.00000    2.47551    0.00000
       4      444        1     0.00000    0.00000   24.42049    0.00000
       5      444        1     0.00000    0.00000    0.00000    2.47551
       6      444        1     0.00000    0.00000    0.00000   24.42049
       7      444        1     0.00000    2.47551   13.44800   13.44800
       8      444        1     0.00000   24.42049   13.44800   13.44800
       9      444        1     0.00000    0.00000   15.92351   13.44800
      10      444        1     0.00000    0.00000   10.97249   13.44800
      11      444        1     0.00000    0.00000   13.44800   15.92351
      12      444        1     0.00000    0.00000   13.44800   10.97249
      13      444        1     0.00000   15.92351    0.00000   13.44800
      14      444        1     0.00000   10.97249    0.00000   13.44800
      15      444        1     0.00000   13.44800    2.47551   13.44800
      16      444        1     0.00000   13.44800   24.42049   13.44800
      17      444        1     0.00000   13.44800    0.00000   15.92351
      18      444        1     0.00000   13.44800    0.00000   10.97249
      19      444        1     0.00000   15.92351   13.44800    0.00000
      20      444        1     0.00000   10.97249   13.44800    0.00000
      21      444        1     0.00000   13.44800   15.92351    0.00000
      22      444        1     0.00000   13.44800   10.97249    0.00000
      23      444        1     0.00000   13.44800   13.44800    2.47551
      24      444        1     0.00000   13.44800   13.44800   24.42049
      25      444        2     0.00000    1.22108    1.22108    1.22108
      26      444        2     0.00000   25.67492   25.67492    1.22108
      27      444        2     0.00000   25.67492    1.22108   25.67492
      28      444        2     0.00000    1.22108   25.67492   25.67492
      29      444        2     0.00000    1.22108    1.22108   25.67492
      30      444        2     0.00000   25.67492   25.67492   25.67492
      31      444        2     0.00000    1.22108   25.67492    1.22108
      32      444        2     0.00000   25.67492    1.22108    1.22108
      33      444        2     0.00000    1.22108   14.66908   14.66908
      34      444        2     0.00000   25.67492   12.22692   14.66908
      35      444        2     0.00000   25.67492   14.66908   12.22692
      36      444        2     0.00000    1.22108   12.22692   12.22692
      37      444        2     0.00000    1.22108   14.66908   12.22692
      38      444        2     0.00000   25.67492   12.22692   12.22692
      39      444        2     0.00000    1.22108   12.22692   14.66908
      40      444        2     0.00000   25.67492   14.66908   14.66908
      41      444        2     0.00000   14.66908    1.22108   14.66908
      42      444        2     0.00000   12.22692   25.67492   14.66908
      43      444        2     0.00000   12.22692    1.22108   12.22692
      44      444        2     0.00000   14.66908   25.67492   12.22692
      45      444        2     0.00000   14.66908    1.22108   12.22692
      46      444        2     0.00000   12.22692   25.67492   12.22692
      47      444        2     0.00000   14.66908   25.67492   14.66908
      48      444        2     0.00000   12.22692    1.22108   14.66908
      49      444        2     0.00000   14.66908   14.66908    1.22108
      50      444        2     0.00000   12.22692   12.22692    1.22108
      51      444        2     0.00000   12.22692   14.66908   25.67492
      52      444        2     0.00000   14.66908   12.22692   25.67492
      53      444        2     0.00000   14.66908   14.66908   25.67492
      54      444        2     0.00000   12.22692   12.22692   25.67492
      55      444        2     0.00000   14.66908   12.22692    1.22108
      56      444        2     0.00000   12.22692   14.66908    1.22108
      57      444        3     0.00000    3.56641    0.00000    1.93382
      58      444        3     0.00000   23.32959    0.00000    1.93382
      59      444        3     0.00000   23.32959    0.00000   24.96218
      60      444        3     0.00000    3.56641    0.00000   24.96218
      61      444        3     0.00000    1.93382    3.56641    0.00000
      62      444        3     0.00000    1.93382   23.32959    0.00000
      63      444        3     0.00000   24.96218   23.32959    0.00000
      64      444        3     0.00000   24.96218    3.56641    0.00000
      65      444        3     0.00000    0.00000    1.93382    3.56641
      66      444        3     0.00000    0.00000    1.93382   23.32959
      67      444        3     0.00000    0.00000   24.96218   23.32959
      68      444        3     0.00000    0.00000   24.96218    3.56641
      69      444        3     0.00000    0.00000    3.56641   24.96218
      70      444        3     0.00000    0.00000   23.32959   24.96218
      71      444        3     0.00000    0.00000   23.32959    1.93382
      72      444        3     0.00000    0.00000    3.56641    1.93382
      73      444        3     0.00000    3.56641    1.93382    0.00000
      74      444        3     0.00000   23.32959    1.93382    0.00000
      75      444        3     0.00000   23.32959   24.96218    0.00000
      76      444        3     0.00000    3.56641   24.96218    0.00000
      77      444        3     0.00000    1.93382    0.00000   23.32959
      78      444        3     0.00000    1.93382    0.00000    3.56641
      79      444        3     0.00000   24.96218    0.00000    3.56641
      80      444        3     0.00000   24.96218    0.00000   23.32959
      81      444        3     0.00000    3.56641   13.44800   15.38182
      82      444        3     0.00000   23.32959   13.44800   15.38182
      83      444        3     0.00000   23.32959   13.44800   11.51418
      84      444        3     0.00000    3.56641   13.44800   11.51418
      85      444        3     0.00000    1.93382   17.01441   13.44800
      86      444        3     0.00000    1.93382    9.88159   13.44800
      87      444        3     0.00000   24.96218    9.88159   13.44800
      88      444        3     0.00000   24.96218   17.01441   13.44800
      89      444        3     0.00000    0.00000   15.38182   17.01441
      90      444        3     0.00000    0.00000   15.38182    9.88159
      91      444        3     0.00000    0.00000   11.51418    9.88159
      92      444        3     0.00000    0.00000   11.51418   17.01441
      93      444        3     0.00000    0.00000   17.01441   11.51418
      94      444        3     0.00000    0.00000    9.88159   11.51418
      95      444        3     0.00000    0.00000    9.88159   15.38182
      96      444        3     0.00000    0.00000   17.01441   15.38182
      97      444        3     0.00000    3.56641   15.38182   13.44800
      98      444        3     0.00000   23.32959   15.38182   13.44800
      99      444        3     0.00000   23.32959   11.51418   13.44800
     100      444        3     0.00000    3.56641   11.51418   13.44800
     101      444        3     0.00000    1.93382   13.44800    9.88159
     102      444        3     0.00000    1.93382   13.44800   17.01441
     103      444        3     0.00000   24.96218   13.44800   17.01441
     104      444        3     0.00000   24.96218   13.44800    9.88159
     105      444        3     0.00000   17.01441    0.00000   15.38182
     106      444        3     0.00000    9.88159    0.00000   15.38182
     107      444        3     0.00000    9.88159    0.00000   11.51418
     108      444        3     0.00000   17.01441    0.00000   11.51418
     109      444        3     0.00000   15.38182    3.56641   13.44800
     110      444        3     0.00000   15.38182   23.32959   13.44800
     111      444        3     0.00000   11.51418   23.32959   13.44800
     112      444        3     0.00000   11.51418    3.56641   13.44800
     113      444        3     0.00000   13.44800    1.93382   17.01441
     114      444        3     0.00000   13.44800    1.93382    9.88159
     115      444        3     0.00000   13.44800   24.96218    9.88159
     116      444        3     0.00000   13.44800   24.96218   17.01441
     117      444        3     0.00000   13.44800    3.56641   11.51418
     118      444        3     0.00000   13.44800   23.32959   11.51418
     119      444        3     0.00000   13.44800   23.32959   15.38182
     120      444        3     0.00000   13.44800    3.56641   15.38182
     121      444        3     0.00000   17.01441    1.93382   13.44800
     122      444        3     0.00000    9.88159    1.93382   13.44800
     123      444        3     0.00000    9.88159   24.96218   13.44800
     124      444        3     0.00000   17.01441   24.96218   13.44800
     125      444        3     0.00000   15.38182    0.00000    9.88159
     126      444        3     0.00000   15.38182    0.00000   17.01441
     127      444        3     0.00000   11.51418    0.00000   17.01441
     128      444        3     0.00000   11.51418    0.00000    9.88159
     129      444        3     0.00000   17.01441   13.44800    1.93382
     130      444        3     0.00000    9.88159   13.44800    1.93382
     131      444        3     0.00000    9.88159   13.44800   24.96218
     132      444        3     0.00000   17.01441   13.44800   24.96218
     133      444        3     0.00000   15.38182   17.01441    0.00000
     134      444        3     0.00000   15.38182    9.88159    0.00000
     135      444        3     0.00000   11.51418    9.88159    0.00000
     136      444        3     0.00000   11.51418   17.01441    0.00000
     137      444        3     0.00000   13.44800   15.38182    3.56641
     138      444        3     0.00000   13.44800   15.38182   23.32959
     139      444        3     0.00000   13.44800   11.51418   23.32959
     140      444        3     0.00000   13.44800   11.51418    3.56641
     141      444        3     0.00000   13.44800   17.01441   24.96218
     142      444        3     0.00000   13.44800    9.88159   24.96218
     143      444        3     0.00000   13.44800    9.88159    1.93382
     144      444        3     0.00000   13.44800   17.01441    1.93382
     145      444        3     0.00000   17.01441   15.38182    0.00000
     146      444        3     0.00000    9.88159   15.38182    0.00000
     147      444        3     0.00000    9.88159   11.51418    0.00000
     148      444        3     0.00000   17.01441   11.51418    0.00000
     149      444        3     0.00000   15.38182   13.44800   23.32959
     150      444        3     0.00000   15.38182   13.44800    3.56641
     151      444        3     0.00000   11.51418   13.44800    3.56641
     152      444        3     0.00000   11.51418   13.44800   23.32959
     153      444        4     0.00000    3.15221    0.00000    3.15221
     154      444        4     0.00000   23.74379    0.00000    3.15221
     155      444        4     0.00000   23.74379    0.00000   23.74379
     156      444        4     0.00000    3.15221    0.00000   23.74379
     157      444        4     0.00000    3.15221    3.15221    0.00000
     158      444        4     0.00000    3.15221   23.74379    0.00000
     159      444        4     0.00000   23.74379   23.74379    0.00000
     160      444        4     0.00000   23.74379    3.15221    0.00000
     161      444        4     0.00000    0.00000    3.15221    3.15221
     162      444        4     0.00000    0.00000    3.15221   23.74379
     163      444        4     0.00000    0.00000   23.74379   23.74379
     164      444        4     0.00000    0.00000   23.74379    3.15221
     165      444        4     0.00000    3.15221   13.44800   16.60021
     166      444        4     0.00000   23.74379   13.44800   16.60021
     167      444        4     0.00000   23.74379   13.44800   10.29579
     168      444        4     0.00000    3.15221   13.44800   10.29579
     169      444        4     0.00000    3.15221   16.60021   13.44800
     170      444        4     0.00000    3.15221   10.29579   13.44800
     171      444        4     0.00000   23.74379   10.29579   13.44800
     172      444        4     0.00000   23.74379   16.60021   13.44800
     173      444        4     0.00000    0.00000   16.60021   16.60021
     174      444        4     0.00000    0.00000   16.60021   10.29579
     175      444        4     0.00000    0.00000   10.29579   10.29579
     176      444        4     0.00000    0.00000   10.29579   16.60021
     177      444        4     0.00000   16.60021    0.00000   16.60021
     178      444        4     0.00000   10.29579    0.00000   16.60021
     179      444        4     0.00000   10.29579    0.00000   10.29579
     180      444        4     0.00000   16.60021    0.00000   10.29579
     181      444        4     0.00000   16.60021    3.15221   13.44800
     182      444        4     0.00000   16.60021   23.74379   13.44800
     183      444        4     0.00000   10.29579   23.74379   13.44800
     184      444        4     0.00000   10.29579    3.15221   13.44800
     185      444        4     0.00000   13.44800    3.15221   16.60021
     186      444        4     0.00000   13.44800    3.15221   10.29579
     187      444        4     0.00000   13.44800   23.74379   10.29579
     188      444        4     0.00000   13.44800   23.74379   16.60021
     189      444        4     0.00000   16.60021   13.44800    3.15221
     190      444        4     0.00000   10.29579   13.44800    3.15221
     191      444        4     0.00000   10.29579   13.44800   23.74379
     192      444        4     0.00000   16.60021   13.44800   23.74379
     193      444        4     0.00000   16.60021   16.60021    0.00000
     194      444        4     0.00000   16.60021   10.29579    0.00000
     195      444        4     0.00000   10.29579   10.29579    0.00000
     196      444        4     0.00000   10.29579   16.60021    0.00000
     197      444        4     0.00000   13.44800   16.60021    3.15221
     198      444        4     0.00000   13.44800   16.60021   23.74379
     199      444        4     0.00000   13.44800   10.29579   23.74379
     200      444        4     0.00000   13.44800   10.29579    3.15221
     201      444        4     0.00000    4.20922    0.00000    4.20922
     202      444        4     0.00000   22.68678    0.00000    4.20922
     203      444        4     0.00000   22.68678    0.00000   22.68678
     204      444        4     0.00000    4.20922    0.00000   22.68678
     205      444        4     0.00000    4.20922    4.20922    0.00000
     206      444        4     0.00000    4.20922   22.68678    0.00000
     207      444        4     0.00000   22.68678   22.68678    0.00000
     208      444        4     0.00000   22.68678    4.20922    0.00000
     209      444        4     0.00000    0.00000    4.20922    4.20922
     210      444        4     0.00000    0.00000    4.20922   22.68678
     211      444        4     0.00000    0.00000   22.68678   22.68678
     212      444        4     0.00000    0.00000   22.68678    4.20922
     213      444        4     0.00000    4.20922   13.44800   17.65722
     214      444        4     0.00000   22.68678   13.44800   17.65722
     215      444        4     0.00000   22.68678   13.44800    9.23878
     216      444        4     0.00000    4.20922   13.44800    9.23878
     217      444        4     0.00000    4.20922   17.65722   13.44800
     218      444        4     0.00000    4.20922    9.23878   13.44800
     219      444        4     0.00000   22.68678    9.23878   13.44800
     220      444        4     0.00000   22.68678   17.65722   13.44800
     221      444        4     0.00000    0.00000   17.65722   17.65722
     222      444        4     0.00000    0.00000   17.65722    9.23878
     223      444        4     0.00000    0.00000    9.23878    9.23878
     224      444        4     0.00000    0.00000    9.23878   17.65722
     225      444        4     0.00000   17.65722    0.00000   17.65722
     226      444        4     0.00000    9.23878    0.00000   17.65722
     227      444        4     0.00000    9.23878    0.00000    9.23878
     228      444        4     0.00000   17.65722    0.00000    9.23878
     229      444        4     0.00000   17.65722    4.20922   13.44800
     230      444        4     0.00000   17.65722   22.68678   13.44800
     231      444        4     0.00000    9.23878   22.68678   13.44800
     232      444        4     0.00000    9.23878    4.20922   13.44800
     233      444        4     0.00000   13.44800    4.20922   17.65722
     234      444        4     0.00000   13.44800    4.20922    9.23878
     235      444        4     0.00000   13.44800   22.68678    9.23878
     236      444        4     0.00000   13.44800   22.68678   17.65722
     237      444        4     0.00000   17.65722   13.44800    4.20922
     238      444        4     0.00000    9.23878   13.44800    4.20922
     239      444        4     0.00000    9.23878   13.44800   22.68678
     240      444        4     0.00000   17.65722   13.44800   22.68678
     241      444        4     0.00000   17.65722   17.65722    0.00000
     242      444        4     0.00000   17.65722    9.23878    0.00000
     243      444        4     0.00000    9.23878    9.23878    0.00000
     244      444        4     0.00000    9.23878   17.65722    0.00000
     245      444        4     0.00000   13.44800   17.65722    4.20922
     246      444        4     0.00000   13.44800   17.65722   22.68678
     247      444        4     0.00000   13.44800    9.23878   22.68678
     248      444        4     0.00000   13.44800    9.23878    4.20922
     249      444        4     0.00000    5.53520    0.00000    3.89185
     250      444        4     0.00000   21.36080    0.00000    3.89185
     251      444        4     0.00000   21.36080    0.00000   23.00415
     252      444        4     0.00000    5.53520    0.00000   23.00415
     253      444        4     0.00000    3.89185    5.53520    0.00000
     254      444        4     0.00000    3.89185   21.36080    0.00000
     255      444        4     0.00000   23.00415   21.36080    0.00000
     256      444        4     0.00000   23.00415    5.53520    0.00000
     257      444        4     0.00000    0.00000    3.89185    5.53520
     258      444        4     0.00000    0.00000    3.89185   21.36080
     259      444        4     0.00000    0.00000   23.00415   21.36080
     260      444        4     0.00000    0.00000   23.00415    5.53520
     261      444        4     0.00000    0.00000    5.53520   23.00415
     262      444        4     0.00000    0.00000   21.36080   23.00415
     263      444        4     0.00000    0.00000   21.36080    3.89185
     264      444        4     0.00000    0.00000    5.53520    3.89185
     265      444        4     0.00000    5.53520    3.89185    0.00000
     266      444        4     0.00000   21.36080    3.89185    0.00000
     267      444        4     0.00000   21.36080   23.00415    0.00000
     268      444        4     0.00000    5.53520   23.00415    0.00000
     269      444        4     0.00000    3.89185    0.00000   21.36080
     270      444        4     0.00000    3.89185    0.00000    5.53520
     271      444        4     0.00000   23.00415    0.00000    5.53520
     272      444        4     0.00000   23.00415    0.00000   21.36080
     273      444        4     0.00000    5.53520   13.44800   17.33985
     274      444        4     0.00000   21.36080   13.44800   17.33985
     275      444        4     0.00000   21.36080   13.44800    9.55615
     276      444        4     0.00000    5.53520   13.44800    9.55615
     277      444        4     0.00000    3.89185   18.98320   13.44800
     278      444        4     0.00000    3.89185    7.91280   13.44800
     279      444        4     0.00000   23.00415    7.91280   13.44800
     280      444        4     0.00000   23.00415   18.98320   13.44800
     281      444        4     0.00000    0.00000   17.33985   18.98320
     282      444        4     0.00000    0.00000   17.33985    7.91280
     283      444        4     0.00000    0.00000    9.55615    7.91280
     284      444        4     0.00000    0.00000    9.55615   18.98320
     285      444        4     0.00000    0.00000   18.98320    9.55615
     286      444        4     0.00000    0.00000    7.91280    9.55615
     287      444        4     0.00000    0.00000    7.91280   17.33985
     288      444        4     0.00000    0.00000   18.98320   17.33985
     289      444        4     0.00000    5.53520   17.33985   13.44800
     290      444        4     0.00000   21.36080   17.33985   13.44800
     291      444        4     0.00000   21.36080    9.55615   13.44800
     292      444        4     0.00000    5.53520    9.55615   13.44800
     293      444        4     0.00000    3.89185   13.44800    7.91280
     294      444        4     0.00000    3.89185   13.44800   18.98320
     295      444        4     0.00000   23.00415   13.44800   18.98320
     296      444        4     0.00000   23.00415   13.44800    7.91280
     297      444        4     0.00000   18.98320    0.00000   17.33985
     298      444        4     0.00000    7.91280    0.00000   17.33985
     299      444        4     0.00000    7.91280    0.00000    9.55615
     300      444        4     0.00000   18.98320    0.00000    9.55615
     301      444        4     0.00000   17.33985    5.53520   13.44800
     302      444        4     0.00000   17.33985   21.36080   13.44800
     303      444        4     0.00000    9.55615   21.36080   13.44800
     304      444        4     0.00000    9.55615    5.53520   13.44800
     305      444        4     0.00000   13.44800    3.89185   18.98320
     306      444        4     0.00000   13.44800    3.89185    7.91280
     307      444        4     0.00000   13.44800   23.00415    7.91280
     308      444        4     0.00000   13.44800   23.00415   18.98320
     309      444        4     0.00000   13.44800    5.53520    9.55615
     310      444        4     0.00000   13.44800   21.36080    9.55615
     311      444        4     0.00000   13.44800   21.36080   17.33985
     312      444        4     0.00000   13.44800    5.53520   17.33985
     313      444        4     0.00000   18.98320    3.89185   13.44800
     314      444        4     0.00000    7.91280    3.89185   13.44800
     315      444        4     0.00000    7.91280   23.00415   13.44800
     316      444        4     0.00000   18.98320   23.00415   13.44800
     317      444        4     0.00000   17.33985    0.00000    7.91280
     318      444        4     0.00000   17.33985    0.00000   18.98320
     319      444        4     0.00000    9.55615    0.00000   18.98320
     320      444        4     0.00000    9.55615    0.00000    7.91280
     321      444        4     0.00000   18.98320   13.44800    3.89185
     322      444        4     0.00000    7.91280   13.44800    3.89185
     323      444        4     0.00000    7.91280   13.44800   23.00415
     324      444        4     0.00000   18.98320   13.44800   23.00415
     325      444        4     0.00000   17.33985   18.98320    0.00000
     326      444        4     0.00000   17.33985    7.91280    0.00000
     327      444        4     0.00000    9.55615    7.91280    0.00000
     328      444        4     0.00000    9.55615   18.98320    0.00000
     329      444        4     0.00000   13.44800   17.33985    5.53520
     330      444        4     0.00000   13.44800   17.33985   21.36080
     331      444        4     0.00000   13.44800    9.55615   21.36080
     332      444        4     0.00000   13.44800    9.55615    5.53520
     333      444        4     0.00000   13.44800   18.98320   23.00415
     334      444        4     0.00000   13.44800    7.91280   23.00415